{
    "analogue": null,
    "attributes": {},
    "bioactivity": null,
    "calculated_density": "1.6407884882007202",
    "ccdc_number": "234593",
    "chemical_name": "catena-(tetrakis(μ3-isonicotinato)-di-cobalt) ethanol clathrate",
    "chemical_name_as_html": "catena-(tetrakis(μ<sub>3</sub>-isonicotinato)-di-cobalt) ethanol clathrate",
    "color": "pink",
    "cross_references": "()",
    "database_name": "as543be_ASER",
    "deposition_date": "2004-11-10",
    "disorder_details": null,
    "doi": "10.1039/b404485a",
    "formula": "(C26 H22 Co2 N4 O9)n",
    "habit": "plate",
    "has_3d_structure": true,
    "has_disorder": false,
    "heat_capacity": "(-999.9, '')",
    "heat_capacity_notes": "",
    "heat_of_fusion": "(0.0, 0.0, '')",
    "heat_of_fusion_notes": "",
    "identifier": "ABAVIJ",
    "input_melting_point_range": "(0.0, 0.0, None)",
    "input_melting_point_text": null,
    "is_organic": false,
    "is_organometallic": true,
    "is_polymeric": true,
    "is_powder_study": false,
    "melting_point": null,
    "melting_point_default_units": "K",
    "peptide_sequence": null,
    "phase_transition": null,
    "polymorph": null,
    "pressure": null,
    "previous_identifier": "K0500601",
    "publication": "Citation(authors='Qiang Wei, M.Nieuwenhuyzen, F.Meunier, C.Hardacre, S.L.James', journal='Journal(Dalton Transactions)', volume='', year=2004, first_page='1807', doi='10.1039/b404485a')",
    "publications": "(Citation(authors='Qiang Wei, M.Nieuwenhuyzen, F.Meunier, C.Hardacre, S.L.James', journal='Journal(Dalton Transactions)', volume='', year=2004, first_page='1807', doi='10.1039/b404485a'),)",
    "r_factor": "4.25",
    "radiation_source": "X-ray",
    "remarks": null,
    "solvent": null,
    "source": null,
    "synonyms": "()",
    "synonyms_as_html": "()",
    "temperature": "at 153 K",
    "cell_angles": "CellAngles(alpha=90.0, beta=105.267, gamma=90.0)",
    "cell_lengths": "CellLengths(a=9.8064, b=26.165, c=10.6685)",
    "cell_volume": "2640.76735205985",
    "crystal_system": "monoclinic",
    "is_centrosymmetric": false,
    "is_sohncke": false,
    "lattice_centring": "C-centred",
    "packing_coefficient": "0.7001357082273113",
    "spacegroup_number_and_setting": "(9, 1)",
    "spacegroup_symbol": "Cc",
    "symmetry_operators": "('x,y,z', 'x,-y,1/2+z', '1/2+x,1/2+y,z', '1/2+x,1/2-y,1/2+z')",
    "z_prime": "1.0",
    "z_value": "4.0",
    "all_atoms_have_sites": true,
    "contains_unknown_bonds": true,
    "formal_charge": "0",
    "is_3d": true,
    "largest_ring_size": "8",
    "molecular_volume": "737.1708545947535",
    "molecular_weight": "1113.9486000000004",
    "rings": "[Atom(Co2A)-Atom(O4)-Atom(C12)-Atom(O3)-Atom(Co1)-Atom(O8)-Atom(C24)-Atom(O7), Atom(C5)-Atom(N1)-Atom(C1)-Atom(C2)-Atom(C3)-Atom(C4), Atom(C11)-Atom(N2)-Atom(C7)-Atom(C8)-Atom(C9)-Atom(C10), Atom(C17)-Atom(C16)-Atom(C15)-Atom(C14)-Atom(C13)-Atom(N3), Atom(C23)-Atom(N4)-Atom(C19)-Atom(C20)-Atom(C21)-Atom(C22)]",
    "smallest_ring_size": "6",
    "smiles": null
}